% Model:              FINAL.mph
% Version:            COMSOL 5.3.0.316
% Date:               Dec 9 2017, 12:47
% Dimension:          1
% Nodes:              561
% Expressions:        1
% Description:        Line graph
% cln5x                   Height
0                         0
0.0052986791458732065     4.705769858267844E-5
0.047256780759846094      4.197672338054953E-4
0.07993638363747312       7.107095137238082E-4
0.08551566936150616       7.604382936546802E-4
0.09916085776739686       8.821295369387687E-4
0.12278726884757299       0.001093071493590208
0.1426732404682326        0.0012708495056984875
0.16094519199656837       0.0014342756127875664
0.1689195865905682        0.001505644253728222
0.18259904774930746       0.0016281351931709577
0.1877134668234779        0.0016739521994253883
0.18970679725158285       0.0016918943236723042
0.1987789636186594        0.0017736311639363683
0.21002927954409795       0.0018749885485679959
0.24391388059637187       0.0021816561617413834
0.26250192015692964       0.0023507718159261597
0.2940842609833013        0.0026389549204851124
0.3023759653552218        0.0027149453683597336
0.30852481386548153       0.0027713859907134383
0.3321142936542514        0.0029886156575565513
0.34721381299504145       0.003128246744674336
0.3546787970038192        0.00319744654055072
0.37343446935355584       0.003371801191974951
0.39117439223853223       0.003537359846387577
0.4026891275410233        0.003645158032079039
0.41732948817972226       0.0037824820996657294
0.43520814493607674       0.00395113540095198
0.46330809985261995       0.004218469520381248
0.47019820232154513       0.004284441696801669
0.4704170397655747        0.004286539770272939
0.4710040434164069        0.0042921684137312835
0.4775843257206681        0.0043553477698474894
0.5071031485875357        0.004640632118020755
0.5235045913514269        0.004800461754723858
0.5392456086429693        0.004954741091461085
0.54954594167588          0.005056433137124603
0.5724596375740991        0.00528381299316182
0.5949322747366652        0.005508221214941972
0.6139193632754452        0.005699118812934301
0.619767145901063         0.005758260962236888
0.6300752270922974        0.005862911979273038
0.6666914904933328        0.006238770730607059
0.667008074187288         0.006242048426155891
0.6815216586374563        0.006392792784982831
0.6853667233507975        0.0064328922663439555
0.6874317178828382        0.006454455896200843
0.6932683050481498        0.006515510721567546
0.7237002577163583        0.006836398710743179
0.7428724563364951        0.007040754572773179
0.7439395311150797        0.007052178351796795
0.7504947556345302        0.007122471958587009
0.771555973850155         0.00735041075771142
0.7903676987668973        0.007556114360891374
0.7970271022979526        0.007629411248089899
0.7977971253081007        0.007637908766592578
0.8027374061344899        0.00769250374755013
0.8097724307172531        0.007770700964603267
0.8370074917596649        0.008075362898156123
0.8527347769510084        0.008253514715251929
0.8682018646901848        0.00843030460004965
0.8799230640955529        0.008565325916049868
0.8993203270975735        0.008790754464364298
0.9104565339423549        0.008921293105672535
0.9280463930604583        0.009129114192750892
0.9406823812205503        0.009279807831156239
0.9502208637864225        0.009394337618689484
0.9567471142981222        0.009473083911529718
0.9629807549613989        0.009548591456412719
0.976640289524921         0.009715045437628916
0.9871696267847135        0.009844344090338464
1.0041539025250563        0.010054494202508903
1.0454233734916654        0.010573421703201242
1.0611951790925347        0.010776212619411037
1.069434675118026         0.010883138448050304
1.0760577617080929        0.010969577319725997
1.0772995354600352        0.010985832462302753
1.0872694380136119        0.011116897008487767
1.0906849376661614        0.011162024609301146
1.099576912488269         0.011280054911666676
1.14674226832585          0.011919267841197703
1.1703849735021679        0.012248013708585205
1.1843141834899447        0.012444298664156873
1.2211077496072935        0.012972510758199551
1.2224976981432283        0.012992718490025316
1.2314295997066458        0.013123002098648827
1.2766075894275761        0.013800099079533973
1.292263987479419         0.014039491218264
1.31172033816417          0.014341510775755868
1.3117563429016783        0.01434207432301568
1.3119389005604367        0.014344931985376758
1.3525593731177799        0.014991761189095095
1.3835472674507796        0.015499900664009494
1.384444169458682         0.015514797469351685
1.3848832916424982        0.015522094813660172
1.4128547587561409        0.015992188758372616
1.4505673987643892        0.016647162228815102
1.4588153157104575        0.01679303936581744
1.4635140615891062        0.01687656624769749
1.4872003891757224        0.017301076038512903
1.4924148820060519        0.017395954617970954
1.5138485753354782        0.01779134009865478
1.5245398562134385        0.017991805850227152
1.5341190785561893        0.018173254430804746
1.5801223428399827        0.019068798838896533
1.5806158218350377        0.01907862214404719
1.589786663947939         0.019262215307607758
1.590369153807949         0.019273929126852572
1.6479217266360064        0.02046241509365636
1.6528647485071195        0.020568283707848408
1.6565885399092546        0.020647106980762074
1.6795970782992506        0.02114860921269359
1.6836328071666369        0.02123545875015477
1.6966917844764973        0.021519879927962664
1.7408065468598704        0.02252841379873083
1.7432407221554045        0.022585529438019374
1.7441220884882902        0.02260624769306991
1.7460120422650978        0.02265074257565676
1.749332795673867         0.022729194625311783
1.8088973069487257        0.024181317871644965
1.8116291749199143        0.024249959233507565
1.8244608664563349        0.0245747656364258
1.8373784810885385        0.02490573633141553
1.8892341026319321        0.026274648366973057
1.8996261158605559        0.02655674066593435
1.9050351757400654        0.02670459525668212
1.9135682495332298        0.026942654627881948
1.9186996057147967        0.02708688252622444
1.9496105184332024        0.02797271982778899
1.976666447609349         0.028772040103357995
2.0389064259185203        0.030695712634943487
2.0472145698020747        0.030961865792984145
2.048017053207564         0.030987686896770027
2.048702116156488         0.031009745624831112
2.0504221300675867        0.031065681765556758
2.0518111303810467        0.031110937529921043
2.0593678966191833        0.03135847032057653
2.1115214799295643        0.03312772330157684
2.114261561979145         0.03322370315083647
2.1505076260511635        0.03450996352659924
2.156333449633408         0.03472300790477548
2.1571856537060308        0.034754299583755
2.1649959522442415        0.03504234873013274
2.1790032828768187        0.03556466937725097
2.1850405380101234        0.0357928634372817
2.2073769923137254        0.036647299055077645
2.209987254305966         0.03674819426198868
2.2111779440741026        0.036794290960884206
2.223525106463372         0.037274984815151874
2.244419885658939         0.038099596446878804
2.2602531359703955        0.03873378680177118
2.278059139164709         0.03947330278746685
2.2946110976914924        0.04017057433053014
2.3037468603755684        0.04055948943086121
2.3102638956589385        0.04083941485133156
2.316521573161209         0.04111014238801736
2.3283624603175457        0.04162762464069531
2.3614546460446952        0.043109979910558045
2.4028625004278124        0.04503978583002232
2.4066732970408014        0.045220261515307586
2.4166450840879126        0.04569499958682325
2.4168261388126746        0.04570365248296052
2.4595791962413074        0.047767635584784404
2.488665589417239         0.04923001915886727
2.4899754619626546        0.0492969845998948
2.4941977565212765        0.04951349405125375
2.5098272369110908        0.05032357710148479
2.538781779490449         0.05186024985400871
2.5420204279506824        0.05203503431137174
2.552050931120118         0.05257003395511534
2.5574747844078187        0.052861053736784666
2.5628292606249112        0.05314953960031443
2.584088487748074         0.05435081493555605
2.586076069195251         0.05446303130381233
2.587511400076149         0.05454405829441738
2.587584264349127         0.054548151634632024
2.6234010021893437        0.05656631591056617
2.637873514145688         0.05738523236233918
2.6606453006014714        0.058677759276845105
2.6771972296471374        0.05960752776395034
2.704193020445843         0.06115904417651814
2.7048806805412187        0.06119913390960595
2.705531106787972         0.06123707893089256
2.7078250324985387        0.061371105155093655
2.7518794032423117        0.0640059915267324
2.7668735160839883        0.06492921232559841
2.7721651811659216        0.06525925748429282
2.7964651999013785        0.06676467452919989
2.7976492413580734        0.0668375996585183
2.8082871008455226        0.06749100282097559
2.809229142974282         0.0675487106956116
2.8104037327126132        0.06762062879182637
2.8189098357972537        0.06813619425606128
2.8415472923992806        0.06949316075665489
2.8547731840562474        0.07027579475622736
2.8746598878260325        0.07143845772167196
2.8876174407391804        0.07214932893226618
2.9200253457049388        0.07393883804214063
2.925174363204104         0.07422467875317028
2.932495987220135         0.07465012770047126
2.9535736832195827        0.07584777258821995
2.9787262862077837        0.07722421574434785
2.990974047414859         0.07787286813583784
2.9989046252892444        0.07828258382725968
3.0088752152527736        0.07878620987674494
3.0206551656306173        0.07936474561702767
3.0341343084341905        0.08000482870133888
3.060895263674013         0.08120634732396177
3.076223009505596         0.08185303319838183
3.102271856888955         0.0828827101465889
3.1244247095634603        0.08377639404688403
3.136587349604663         0.08412289308418205
3.147422533375888         0.08448989374423245
3.163684715791562         0.08498253662393984
3.188363996030479         0.08559677026171181
3.18845574144359          0.08559875364508575
3.206189767183959         0.08594039894374338
3.248664580639309         0.08642104912321662
3.2570875547679554        0.08645976565793656
3.26055292149806          0.08647025541897184
3.2620970865417767        0.086467428193946
3.283420878990156         0.08635111293964641
3.291753931170426         0.08626649631385017
3.338001674905435         0.08541113061640879
3.366555714644354         0.08487486572980192
3.3987057192292176        0.08356778942332
3.4035637660899263        0.08334159547919942
3.404967253245161         0.08327484593116764
3.4111443946086837        0.08298785417322674
3.4414049610337005        0.08138198183170063
3.483451085522204         0.07859933791783355
3.498789001204069         0.07742465044254972
3.502055182446453         0.07716348345440037
3.5085372613661234        0.07663371107218712
3.511756568219595         0.0763649372814552
3.518574578864028         0.07578330418154011
3.5415905801389718        0.07369532395322874
3.5476261680856487        0.07311598566399416
3.584328761191076         0.06928649133075375
3.589167642778319         0.06879386159611663
3.5927371017141465        0.06842674589459395
3.608292306750703         0.06655452437224843
3.61296267234665          0.06598124768942379
3.6321366594022875        0.0635737071081326
3.6592527277978144        0.060057241529378566
3.6623979204109576        0.059635402670697224
3.688144155877539         0.05607313767322049
3.7261940655305197        0.05034604887979342
3.7277624405105194        0.05010010995463989
3.7325175985953445        0.04934966879420784
3.7453692004820804        0.04728551774702144
3.7454232753135015        0.04727672165008809
3.745601425120476         0.04724773628939696
3.745715772389948         0.0472289903423202
3.7982714183118613        0.038149575194293836
3.8061620385556973        0.03675965025549366
3.8066527437472084        0.036672668469654605
3.8070305458043516        0.036605656306152444
3.809705473533331         0.0361227982488233
3.826416049774198         0.033091030904994295
3.8663843133055917        0.025732683746053663
3.8752854998283675        0.02407339005583853
3.888050653997147         0.02168074255613012
3.9020798299770103        0.019033419822962302
3.917183465588841         0.016122752088396967
3.955000819639464         0.008708646327940583
3.9698560857093           0.005807111285698413
3.988794264991065         0.002116970777412887
3.9958042543914476        7.535820452711059E-4
4.0034374221580205        -7.294608488825539E-4
4.02380811950872          -0.004679362874328761
4.070057818733105         -0.013604527770571072
4.072195525222876         -0.014016236173059096
4.073311763546668         -0.014231293930406636
4.073569622155606         -0.014280981288084122
4.100302697528525         -0.019447633186185823
4.12637233651066          -0.024497662266189213
4.127567450497951         -0.02472151059179374
4.144187370199655         -0.02780805110520713
4.157506149153894         -0.030205628204571056
4.161466521265965         -0.030912043653861063
4.1635622777335595        -0.031284658351474176
4.177667820797292         -0.03385484533773088
4.19336996979797          -0.03666142950484425
4.220251189054903         -0.041332803486447946
4.220497476325275         -0.04137482459905851
4.221394876669307         -0.04152781795182711
4.240388924068639         -0.04472200742075836
4.244477551023329         -0.0453985894744176
4.251923596741105         -0.04662074895903879
4.279484592429952         -0.051032091032957555
4.292213089479806         -0.05303019417280273
4.2961559758419305        -0.05363805320828577
4.3205425447634855        -0.057281074925664234
4.33615767384589          -0.05950837807360269
4.347963425985944         -0.06113770404731966
4.3522337114069           -0.06171546908198499
4.368074387000844         -0.06370530130484406
4.395241199474469         -0.06693974081141635
4.413753255204405         -0.06901483726527564
4.427905612637469         -0.07053075774625933
4.443331615798584         -0.07211354057878049
4.454318407840747         -0.07315906531439838
4.512395268035637         -0.07830859331477183
4.514511381310505         -0.07846985274497068
4.514906688000929         -0.07849977174218192
4.515875754970989         -0.07857284235759858
4.51608159256296          -0.07858831307303495
4.5217993021898835        -0.07901104301799355
4.53329155154953          -0.07981975715767971
4.533738278042281         -0.07985008927170886
4.583753114190016         -0.08272351017589832
4.589280196539019         -0.08297749239084935
4.617136084836992         -0.08406501152759477
4.619998311407246         -0.08417434713428243
4.621656266410653         -0.08423593893742698
4.655774076911421         -0.08529729379311873
4.66175568501215          -0.0854515135957233
4.67715260106787          -0.08573915326248453
4.691283966030553         -0.08596875047397698
4.709981528809965         -0.08617899952498712
4.739440530449334         -0.08629407871659703
4.752658688321155         -0.08625975225746793
4.759919637382122         -0.08621823694964438
4.76440382336046          -0.08618457241441142
4.818699219509735         -0.08529062668038029
4.824172587506685         -0.08515065998764217
4.828555308733694         -0.08503200118437722
4.864077612199335         -0.08396667772164516
4.890549281195145         -0.08303399166319993
4.9003356402248786        -0.08272877848688451
4.907967296864419         -0.08248160542548358
4.920586588813139         -0.08205528372382694
4.960822456863421         -0.08027325490157022
4.976626489634564         -0.07952240261476236
4.9880442191646885        -0.07896208205589501
4.988086209935345         -0.07895999372074324
4.988095097593306         -0.07895955168313647
5.007236005064433         -0.07798649194465834
5.014739625411883         -0.07759354297729004
5.0339862820880725        -0.07654942752216186
5.059128935018278         -0.0751350963919101
5.063614962045408         -0.07488026037728639
5.074497897523968         -0.07425943589774078
5.083267526060304         -0.07375648559409131
5.097472179181109         -0.07297405871866394
5.115612803654926         -0.07195981222618134
5.122697886474613         -0.07152666447852304
5.138967031047736         -0.07053834719704054
5.1607428141291045        -0.06922954003194891
5.167604460447936         -0.06881850867366093
5.179865140127133         -0.06808570654665005
5.182753790865103         -0.06791336354134746
5.1838091158549275        -0.06785042984546102
5.1859719993219535        -0.06772149640986483
5.198658807169028         -0.06696513277623826
5.213337771809149         -0.06608914348022814
5.237888764745064         -0.06465054628785474
5.2677836134989295        -0.06287239004109167
5.268350200142091         -0.06283840902278788
5.2767297010359835        -0.06233463146661368
5.278489928050027         -0.06222851639643888
5.28472567115953          -0.06185178577290257
5.309188186769314         -0.06036811434717596
5.332194478609994         -0.05901260294244375
5.338790716781449         -0.05863108135975613
5.344415169729962         -0.05830827454814573
5.349401889329296         -0.05802399978426409
5.359170190163793         -0.057465159802171914
5.363183386371255         -0.05723628266560398
5.427976178351705         -0.053598787171692315
5.4312314084210085        -0.05341890318950866
5.435591021721615         -0.05317861522040812
5.441702800881299         -0.05284295683625492
5.4469006524738095        -0.052558596627954486
5.4671317177839445        -0.05146148382968848
5.48745582368713          -0.050369706274937635
5.493823979838216         -0.05003341069864142
5.5200316508156035        -0.04867849851480662
5.559100988063593         -0.046745540891983926
5.572686494743015         -0.04609776920605489
5.603436486505724         -0.04465232954925887
5.6086782821245285        -0.044409353186697774
5.626100284558795         -0.04360901698159517
5.632162575348455         -0.04333313546947587
5.63471545972537          -0.043217362440931086
5.658622848881839         -0.04214475983978458
5.662651654508481         -0.04196607080910045
5.678680686481315         -0.041261030418443624
5.69378286106973          -0.04060537543754837
5.697835016099901         -0.04043087535215935
5.7008227597102605        -0.04030259809889507
5.70392343046429          -0.040170507250767075
5.705902194516037         -0.04008640386346008
5.716066024047989         -0.03965678561832434
5.72588110371721          -0.03924568226427105
5.728922226845382         -0.03911905756516384
5.743301626272285         -0.038525155962934404
5.748090480708306         -0.038329131883558215
5.750770714229195         -0.038219806046829355
5.755375755533916         -0.03803261352550526
5.771089002305256         -0.037400021934275385
5.793426549009868         -0.03652559542919525
5.798937828332768         -0.03631351920930633
5.810981999523467         -0.03585510857242508
5.830259514622785         -0.035135823303908124
5.835618885826294         -0.0349390096936545
5.842069601743409         -0.034703939280661525
5.851205640342331         -0.034374416749859193
5.865167089567215         -0.03387855703784421
5.905997412814926         -0.03245370161856023
5.911664804295413         -0.032259399743528386
5.912248678718296         -0.03223979423596535
5.918179100509916         -0.032041120814646114
5.95721012398317          -0.03075445027787783
5.972556248295847         -0.030254542317820952
5.97302874375859          -0.030239265641456264
5.974728011938559         -0.03018584422186486
5.992791124844241         -0.02962345226021267
6.0062332168579085        -0.02921142954943359
6.049684376611637         -0.02791748918637634
6.082075465838045         -0.02699058231685681
6.082671887643817         -0.026973816765855606
6.084424780960966         -0.026924605694129095
6.1203963301545805        -0.0259355163401331
6.14622790738812          -0.02525102112525193
6.163523024774903         -0.024804773419244173
6.17287136773252          -0.024567590177264828
6.1898240807282905        -0.024134164755999565
6.202007553222754         -0.02383044075813415
6.216812915318536         -0.02346691069447644
6.233718794157535         -0.023059258334592138
6.248375860351612         -0.02271226368776161
6.249416853581595         -0.02268809197700479
6.250369743044955         -0.02266598395063457
6.253012458207903         -0.022604759872650364
6.31252465033047          -0.021260937524179225
6.3153193629449875        -0.021199474250953632
6.323823911633811         -0.021013343018626486
6.33984115482882          -0.020666395839694113
6.350584476983628         -0.020436547651836036
6.365158417295087         -0.020128417481209367
6.387408669459316         -0.019666145209664962
6.406946421178767         -0.019264938519064346
6.441054081730625         -0.018586360371596094
6.4575923731707725        -0.01826599889822669
6.457713692216396         -0.0182636692994839
6.458722954953284         -0.018244300733950374
6.500871908755713         -0.017453842478355908
6.517221914530341         -0.01715689777126995
6.5376248205979985        -0.01679393606164621
6.544786827768126         -0.0166676717434179
6.5504585545501355        -0.016568166702849454
6.562756166769342         -0.01635389232536516
6.607623880480701         -0.01558924040058009
6.608856492252677         -0.015568613200524984
6.611077373959064         -0.015531498962576048
6.642622663214032         -0.015011442456489964
6.651960111645925         -0.014860207075485207
6.670767275696898         -0.014559447815356856
6.69231835896011          -0.014221575705209086
6.721522705420403         -0.013772549787803907
6.748917816412359         -0.013360580206994965
6.763248262017629         -0.013148640767860376
6.78480594447878          -0.012834424255253255
6.787724526350391         -0.012792309768820459
6.829094119718616         -0.012206272622231725
6.835171623958794         -0.01212144628427702
6.844040243229873         -0.01199839925853433
6.847462947814762         -0.011951144814599622
6.84898552222801          -0.011930166220538994
6.854646415776677         -0.01185232963554697
6.85649436759641          -0.011826975567887893
6.8588857457165755        -0.011794420667193006
6.865409231932064         -0.011705861196547611
6.883054286625358         -0.01146813720244223
6.889017387080151         -0.011388156473806185
6.912306686974951         -0.011079005599859698
6.93169512539234          -0.010825546409801677
6.940749350408694         -0.01070840022215677
6.96124498266557          -0.010445777091694081
6.980622762603447         -0.010200747786853358
7.000026789959374         -0.009958571467504663
7.031404988338314         -0.009573692746944178
7.049250415852402         -0.009358521988739661
7.05797580458313          -0.00925429706287207
7.058436975518213         -0.00924878770255421
7.067422983980344         -0.009141770443347548
7.067821240104463         -0.009137042175826521
7.067962636478885         -0.009135370830071574
7.099747097544324         -0.008762870328812018
7.119736136096079         -0.008531871752075098
7.134276293874977         -0.00836542559051667
7.1365362998743285        -0.00833967429780293
7.158353142013509         -0.008092742594076604
7.181353910185019         -0.007835662466670898
7.191804788780992         -0.007719742218566203
7.194080562386777         -0.007694589613353199
7.200521888712862         -0.007623572572865877
7.2194684734417525        -0.00741603330961545
7.242031357310661         -0.007171628282890394
7.253295762709333         -0.007051003431718155
7.263850880472932         -0.006938526320444334
7.264105514027224         -0.006935819503681345
7.293106748380291         -0.006629564122561363
7.299252965737858         -0.006565177649374533
7.3005394718621295        -0.006551723415954239
7.32501887718644          -0.006297231359895521
7.33886747334533          -0.0061545551733496505
7.340074060425268         -0.006142132838210657
7.345482730492487         -0.006086528236702654
7.353950774834013         -0.005999734017707899
7.365981731719047         -0.005877256729484476
7.3677827878230655        -0.0058589736391937595
7.402479572122891         -0.0055093980082661365
7.4188507887540505        -0.005346199897965951
7.426210692651732         -0.005273196405783959
7.441313173492725         -0.005123953747825506
7.455024319787936         -0.004989233423018164
7.455104386125369         -0.004988448883718304
7.455222092768677         -0.004987295567071513
7.4556015680302865        -0.00498357775079028
7.467890198573976         -0.004863487553859999
7.478688542283719         -0.004758449027578892
7.490407924977947         -0.004645051219222482
7.491175266333359         -0.004637645646552494
7.512608399566786         -0.004431306090192853
7.526406373136121         -0.004299151873764006
7.539203601950412         -0.004177059143297278
7.547010267396262         -0.004102804402905522
7.560050412056446         -0.003979150964548611
7.572443997836642         -0.003862132968726678
7.584380795012244         -0.0037498453188502387
7.6030677199206815        -0.003574882749882891
7.624369534698616         -0.0033766617413868516
7.627734416481691         -0.003345469609063693
7.646536231186751         -0.0031712379384857825
7.650584951597474         -0.003133833955908283
7.666948087379953         -0.0029830769406662566
7.690942977465238         -0.0027632351480332265
7.690967405224283         -0.0027630118775551385
7.691566914441593         -0.002757532687166642
7.71901900281579          -0.002507340580063946
7.722686530187632         -0.002474020077133786
7.730094194536057         -0.002406794517388817
7.735522276782166         -0.00235759773340643
7.748530960686106         -0.002239914676949695
7.757300368441124         -0.002160757110967573
7.761435573489346         -0.0021234793078146416
7.782130486170969         -0.001937454614487828
7.794954297495253         -0.0018225753677947904
7.804831206455408         -0.0017341732067291111
7.836586951392292         -0.0014504064434721874
7.857164404122305         -0.001266902237756751
7.901130998214141         -8.758061417220315E-4
7.91302895204112          -7.702012499664539E-4
7.918975802270645         -7.174545597983095E-4
7.929337715146351         -6.254634942250021E-4
7.948787801041678         -4.529855953645828E-4
7.961735312661543         -3.382774476663813E-4
8                         -2.411198233742417E-18
